<UPF version="2.0.1">
   <PP_INFO>
         UPF file from ATOMPAW code with following input
           Ce  58
           GGA-PBE  loggrid 2001 scalarrelativistic logderivrange -8 8 500
           6 5 5 4 0
           5 2 1
           4 3 1
           0 0 0
           c
           c
           c
           c
           v
           v
           c
           c
           c
           v
           c
           c
           v
           v
           3
           2.335 1.9458 2.335 1.631930               ! rpaw, rshape, rveff, rcore
           n
           y
           2.0
           n
           y
           2.0
           n
           y
           2.0
           n
           VANDERBILT BESSELSHAPE
           4 0.0
           2.295
           2.295
           2.295
           2.295
           2.295
           2.295
           2.295
           2.295
           PWSCFOUT
           UPFDX  0.0125d0  UPFXMIN  -7.d0  UPFZMESH  58.0
           END
  </PP_INFO>
  <!--                               -->
  <!-- END OF HUMAN READABLE SECTION -->
  <PP_HEADER generated="Generated using ATOMPAW code"
             author="   "
             date=" 06/16/2022, 14:20:09.933"
             element="Ce"
             pseudo_type="PAW"
             relativistic="scalar"
             is_ultrasoft="T"
             is_paw="T"
             is_coulomb="F"
             has_so="F"
             has_wfc="T"
             has_gipaw="T"
             paw_as_gipaw="T"
             core_correction="T"
             functional="SLA PW PBX PBC"
             z_valence="12.000"
             l_max="3"
             l_max_rho="6"
             mesh_size="  2000"
             number_of_wfc="     8"
             number_of_proj=" 8"
                                    /> 
<PP_MESH dx=" 1.2500000000000E-02" mesh="  1102" xmin="-7.0000000000000E+00" zmesh=" 5.8000000000000E+01">
 <PP_R type="real" size="  1102" columns="3">
  1.57221028543882106E-05  1.59198625632590028E-05  1.61201097830445205E-05
  1.63228758027802403E-05  1.65281923050693076E-05  1.67360913710329122E-05
  1.69466054853230804E-05  1.71597675411984720E-05  1.73756108456639734E-05
  1.75941691246750779E-05  1.78154765284075350E-05  1.80395676365934245E-05
  1.82664774639243116E-05  1.84962414655223584E-05  1.87288955424803088E-05
  1.89644760474710049E-05  1.92030197904276438E-05  1.94445640442953864E-05
  1.96891465508553006E-05  1.99368055266216868E-05  2.01875796688133515E-05
  2.04415081614002198E-05  2.06986306812258759E-05  2.09589874042071496E-05
  2.12226190116117419E-05  2.14895666964146484E-05  2.17598721697347316E-05
  2.20335776673521453E-05  2.23107259563077239E-05  2.25913603415855169E-05
  2.28755246728791655E-05  2.31632633514435661E-05  2.34546213370326528E-05
  2.37496441549244309E-05  2.40483779030344615E-05  2.43508692591186503E-05
  2.46571654880668006E-05  2.49673144492878532E-05  2.52813646041879844E-05
  2.55993650237428775E-05  2.59213653961650409E-05  2.62474160346677872E-05
  2.65775678853267283E-05  2.69118725350402118E-05  2.72503822195899508E-05
  2.75931498318028332E-05  2.79402289298156326E-05  2.82916737454435510E-05
  2.86475391926540319E-05  2.90078808761472611E-05  2.93727551000443773E-05
  2.97422188766852131E-05  3.01163299355365478E-05  3.04951467322124250E-05
  3.08787284576081026E-05  3.12671350471485372E-05  3.16604271901535703E-05
  3.20586663393207063E-05  3.24619147203271928E-05  3.28702353415530441E-05
  3.32836920039260241E-05  3.37023493108908105E-05  3.41262726785033916E-05
  3.45555283456523953E-05  3.49901833844092091E-05  3.54303057105079114E-05
  3.58759640939574023E-05  3.63272281697867954E-05  3.67841684489260035E-05
  3.72468563292233535E-05  3.77153641066014643E-05  3.81897649863537393E-05
  3.86701330945828138E-05  3.91565434897828778E-05  3.96490721745678624E-05
  4.01477961075467885E-05  4.06527932153488423E-05  4.11641424047995419E-05
  4.16819235752500605E-05  4.22062176310617743E-05  4.27371064942475576E-05
  4.32746731172723895E-05  4.38190014960148006E-05  4.43701766828913776E-05
  4.49282848001465203E-05  4.54934130533089903E-05  4.60656497448181160E-05
  4.66450842878211462E-05  4.72318072201442795E-05  4.78259102184394562E-05
  4.84274861125088437E-05  4.90366288998097887E-05  4.96534337601421238E-05
  5.02779970705201351E-05  5.09104164202318392E-05  5.15507906260872495E-05
  5.21992197478588860E-05  5.28558051039162619E-05  5.35206492870570445E-05
  5.41938561805375944E-05  5.48755309743046031E-05  5.55657801814314904E-05
  5.62647116547611780E-05  5.69724346037583118E-05  5.76890596115736554E-05
  5.84146986523226134E-05  5.91494651085816323E-05  5.98934737891043754E-05
  6.06468409467608374E-05  6.14096842967022368E-05  6.21821230347539703E-05
  6.29642778560404108E-05  6.37562709738436552E-05  6.45582261386996588E-05
  6.53702686577346147E-05  6.61925254142441957E-05  6.70251248875194911E-05
  6.78681971729221221E-05  6.87218740022119069E-05  6.95862887641303179E-05
  7.04615765252425327E-05  7.13478740510420129E-05  7.22453198273203319E-05
  7.31540540818058718E-05  7.40742188060748306E-05  7.50059577777374009E-05
  7.59494165829035497E-05  7.69047426389310576E-05  7.78720852174597596E-05
  7.88515954677357426E-05  7.98434264402283724E-05  8.08477331105450151E-05
  8.18646724036461640E-05  8.28944032183653499E-05  8.39370864522372888E-05
  8.49928850266388233E-05  8.60619639122451219E-05  8.71444901548071413E-05
  8.82406329012526826E-05  8.93505634261159467E-05  9.04744551582997372E-05
  9.16124837081737110E-05  9.27648268950141393E-05  9.39316647747884319E-05
  9.51131796682891666E-05  9.63095561896224096E-05  9.75209812750535920E-05
  9.87476442122169865E-05  9.99897366696921876E-05  1.01247452726952621E-04
  1.02520988904691276E-04  1.03810544195526882E-04  1.05116320095097199E-04
  1.06438520633543235E-04  1.07777352407388991E-04  1.09133024611823227E-04
  1.10505749073385920E-04  1.11895740283067023E-04  1.13303215429821018E-04
  1.14728394434502994E-04  1.16171499984232194E-04  1.17632757567186677E-04
  1.19112395507836762E-04  1.20610645002620974E-04  1.22127740156071014E-04
  1.23663918017391365E-04  1.25219418617498123E-04  1.26794485006524748E-04
  1.28389363291799035E-04  1.30004302676297733E-04  1.31639555497585557E-04
  1.33295377267242583E-04  1.34972026710789201E-04  1.36669765808112117E-04
  1.38388859834399214E-04  1.40129577401589851E-04  1.41892190500345360E-04
  1.43676974542548437E-04  1.45484208404336843E-04  1.47314174469678267E-04
  1.49167158674493700E-04  1.51043450551334967E-04  1.52943343274625145E-04
  1.54867133706467657E-04  1.56815122443031309E-04  1.58787613861519663E-04
  1.60784916167729759E-04  1.62807341444210553E-04  1.64855205699026083E-04
  1.66928828915132468E-04  1.69028535100376330E-04  1.71154652338120880E-04
  1.73307512838510115E-04  1.75487452990377192E-04  1.77694813413805872E-04
  1.79929939013353515E-04  1.82193179031942329E-04  1.84484887105429782E-04
  1.86805421317864858E-04  1.89155144257439260E-04  1.91534423073143209E-04
  1.93943629532132149E-04  1.96383140077816839E-04  1.98853335888683297E-04
  2.01354602937852447E-04  2.03887332053389974E-04  2.06451918979372789E-04
  2.09048764437725856E-04  2.11678274190835322E-04  2.14340859104949680E-04
  2.17036935214379287E-04  2.19766923786501189E-04  2.22531251387584022E-04
  2.25330349949439529E-04  2.28164656836912544E-04  2.31034614916221184E-04
  2.33940672624154020E-04  2.36883284038140408E-04  2.39862908947200548E-04
  2.42880012923788320E-04  2.45935067396538894E-04  2.49028549723928963E-04
  2.52160943268865873E-04  2.55332737474214008E-04  2.58544427939270754E-04
  2.61796516497205965E-04  2.65089511293472983E-04  2.68423926865208446E-04
  2.71800284221629298E-04  2.75219110925441516E-04  2.78680941175273684E-04
  2.82186315889145325E-04  2.85735782788987128E-04  2.89329896486223643E-04
  2.92969218568432199E-04  2.96654317687092815E-04  3.00385769646439914E-04
  3.04164157493433873E-04  3.07990071608862947E-04  3.11864109799591370E-04
  3.15786877391968624E-04  3.19758987326411827E-04  3.23781060253179489E-04
  3.27853724629349221E-04  3.31977616817016039E-04  3.36153381182724062E-04
  3.40381670198151376E-04  3.44663144542059138E-04  3.48998473203523995E-04
  3.53388333586469969E-04  3.57833411615512780E-04  3.62334401843138480E-04
  3.66892007558227166E-04  3.71506940895944345E-04  3.76179922949013308E-04
  3.80911683880386944E-04  3.85702963037337946E-04  3.90554509066982241E-04
  3.95467080033257406E-04  4.00441443535371974E-04  4.05478376827743240E-04
  4.10578666941446174E-04  4.15743110807187529E-04  4.20972515379828204E-04
  4.26267697764472371E-04  4.31629485344140471E-04  4.37058715909050780E-04
  4.42556237787524733E-04  4.48122909978540453E-04  4.53759602285953672E-04
  4.59467195454404910E-04  4.65246581306939431E-04  4.71098662884354648E-04
  4.77024354586303074E-04  4.83024582314169352E-04  4.89100283615743103E-04
  4.95252407831714317E-04  5.01481916244008201E-04  5.07789782225987786E-04
  5.14176991394546729E-04  5.20644541764112099E-04  5.27193443902587884E-04
  5.33824721089256791E-04  5.40539409474670462E-04  5.47338558242550896E-04
  5.54223229773725284E-04  5.61194499812128094E-04  5.68253457632885589E-04
  5.75401206212518648E-04  5.82638862401285490E-04  5.89967557097690188E-04
  5.97388435425190065E-04  6.04902656911121355E-04  6.12511395667878714E-04
  6.20215840576373613E-04  6.28017195471797197E-04  6.35916679331724379E-04
  6.43915526466579645E-04  6.52014986712501441E-04  6.60216325626632140E-04
  6.68520824684862205E-04  6.76929781482065850E-04  6.85444509934850319E-04
  6.94066340486859537E-04  7.02796620316659040E-04  7.11636713548233603E-04
  7.20588001464136517E-04  7.29651882721315853E-04  7.38829773569658400E-04
  7.48123108073282372E-04  7.57533338334610666E-04  7.67061934721267598E-04
  7.76710386095824483E-04  7.86480200048437984E-04  7.96372903132415910E-04
  8.06390041102741039E-04  8.16533179157602203E-04  8.26803902182956466E-04
  8.37203815000171965E-04  8.47734542616785974E-04  8.58397730480412813E-04
  8.69195044735851323E-04  8.80128172485421007E-04  8.91198822052575697E-04
  9.02408723248834680E-04  9.13759627644066051E-04  9.25253308840174693E-04
  9.36891562748232588E-04  9.48676207869090181E-04  9.60609085577524523E-04
  9.72692060409954644E-04  9.84927020355780888E-04  9.97315877152387753E-04
  1.00986056658385385E-03  1.02256304878342672E-03  1.03542530853979265E-03
  1.04844935560720635E-03  1.06163722501952129E-03  1.07499097740816250E-03
  1.08851269932411037E-03  1.10220450356392414E-03  1.11606852949987169E-03
  1.13010694341421315E-03  1.14432193883768274E-03  1.15871573689223760E-03
  1.17329058663810724E-03  1.18804876542521706E-03  1.20299257924902868E-03
  1.21812436311085509E-03  1.23344648138271127E-03  1.24896132817674992E-03
  1.26467132771934708E-03  1.28057893472989493E-03  1.29668663480435168E-03
  1.31299694480362670E-03  1.32951241324684032E-03  1.34623562070953747E-03
  1.36316918022690850E-03  1.38031573770207826E-03  1.39767797231953928E-03
  1.41525859696377287E-03  1.43306035864314762E-03  1.45108603891914490E-03
  1.46933845434097992E-03  1.48782045688569892E-03  1.50653493440380056E-03
  1.52548481107047090E-03  1.54467304784249504E-03  1.56410264292090547E-03
  1.58377663221946434E-03  1.60369808983902638E-03  1.62387012854787387E-03
  1.64429590026809753E-03  1.66497859656808325E-03  1.68592144916120839E-03
  1.70712773041079902E-03  1.72860075384144397E-03  1.75034387465674277E-03
  1.77236049026355865E-03  1.79465404080287401E-03  1.81722800968731708E-03
  1.84008592414545199E-03  1.86323135577291929E-03  1.88666792109049887E-03
  1.91039928210920548E-03  1.93442914690247921E-03  1.95876127018558208E-03
  1.98339945390228322E-03  2.00834754781891323E-03  2.03360945012590576E-03
  2.05918910804689078E-03  2.08509051845546037E-03  2.11131772849968867E-03
  2.13787483623450406E-03  2.16476599126202160E-03  2.19199539537992495E-03
  2.21956730323800413E-03  2.24748602300296014E-03  2.27575591703155569E-03
  2.30438140255224922E-03  2.33336695235539194E-03  2.36271709549211147E-03
  2.39243641798198795E-03  2.42252956352962323E-03  2.45300123425023489E-03
  2.48385619140436718E-03  2.51509925614185189E-03  2.54673531025511810E-03
  2.57876929694198431E-03  2.61120622157804457E-03  2.64405115249876721E-03
  2.67730922179143125E-03  2.71098562609702878E-03  2.74508562742224651E-03
  2.77961455396166877E-03  2.81457780093031769E-03  2.84998083140666466E-03
  2.88582917718625083E-03  2.92212843964603699E-03  2.95888429061963399E-03
  2.99610247328353741E-03  3.03378880305450998E-03  3.07194916849825011E-03
  3.11058953224949706E-03  3.14971593194370144E-03  3.18933448116041950E-03
  3.22945137037857063E-03  3.27007286794371230E-03  3.31120532104748570E-03
  3.35285515671937193E-03  3.39502888283093251E-03  3.43773308911267655E-03
  3.48097444818371493E-03  3.52475971659438033E-03  3.56909573588194261E-03
  3.61398943363961831E-03  3.65944782459901984E-03  3.70547801172621842E-03
  3.75208718733160236E-03  3.79928263419368820E-03  3.84707172669706676E-03
  3.89546193198467153E-03  3.94446081112452638E-03  3.99407602029118718E-03
  4.04431531196202971E-03  4.09518653612858923E-03  4.14669764152314230E-03
  4.19885667686070371E-03  4.25167179209666457E-03  4.30515123970023460E-03
  4.35930337594390548E-03  4.41413666220914075E-03  4.46965966630847623E-03
  4.52588106382426428E-03  4.58280963946425257E-03  4.64045428843420579E-03
  4.69882401782780509E-03  4.75792794803402055E-03  4.81777531416219609E-03
  4.87837546748505057E-03  4.93973787689983013E-03  5.00187213040785214E-03
  5.06478793661263669E-03  5.12849512623690836E-03  5.19300365365865831E-03
  5.25832359846654072E-03  5.32446516703482739E-03  5.39143869411817019E-03
  5.45925464446643700E-03  5.52792361445984034E-03  5.59745633376465199E-03
  5.66786366700972825E-03  5.73915661548413201E-03  5.81134631885611014E-03
  5.88444405691368553E-03  5.95846125132714829E-03  6.03340946743371499E-03
  6.10930041604463517E-03  6.18614595527502975E-03  6.26395809239674826E-03
  6.34274898571452524E-03  6.42253094646574266E-03  6.50331644074408737E-03
  6.58511809144739745E-03  6.66794868025002291E-03  6.75182114959998417E-03
  6.83674860474125894E-03  6.92274431576149658E-03  7.00982171966550369E-03
  7.09799442247480324E-03  7.18727620135359551E-03  7.27768100676147618E-03
  7.36922296463322132E-03  7.46191637858598968E-03  7.55577573215429968E-03
  7.65081569105310368E-03  7.74705110546934118E-03  7.84449701238230587E-03
  7.94316863791320708E-03  8.04308139970428410E-03  8.14425090932784264E-03
  8.24669297472559008E-03  8.35042360267866657E-03  8.45545900130872941E-03
  8.56181558261051232E-03  8.66950996501622724E-03  8.77855897599223028E-03
  8.88897965466835076E-03  9.00078925450027885E-03  9.11400524596547336E-03
  9.22864531929293817E-03  9.34472738722736881E-03  9.46226958782804550E-03
  9.58129028730295845E-03  9.70180808287855051E-03  9.82384180570557326E-03
  9.94741052380149725E-03  1.00725335450299307E-02  1.01992304201175034E-02
  1.03275209457087177E-02  1.04574251674592004E-02  1.05889633831678966E-02
  1.07221561459486265E-02  1.08570242674415566E-02  1.09935888210650617E-02
  1.11318711453084872E-02  1.12718928470663358E-02  1.14136758050143831E-02
  1.15572421730282676E-02  1.17026143836450793E-02  1.18498151515684901E-02
  1.19988674772179699E-02  1.21497946503226501E-02  1.23026202535603934E-02
  1.24573681662426290E-02  1.26140625680455538E-02  1.27727279427882444E-02
  1.29333890822583113E-02  1.30960710900856689E-02  1.32607993856650140E-02
  1.34275997081276764E-02  1.35964981203633949E-02  1.37675210130927140E-02
  1.39406951089905643E-02  1.41160474668617607E-02  1.42936054858689779E-02
  1.44733969098139251E-02  1.46554498314723884E-02  1.48397926969837616E-02
  1.50264543102958305E-02  1.52154638376654442E-02  1.54068508122157926E-02
  1.56006451385510333E-02  1.57968770974289303E-02  1.59955773504922953E-02
  1.61967769450599326E-02  1.64005073189778319E-02  1.66068003055314176E-02
  1.68156881384195350E-02  1.70272034567910645E-02  1.72413793103448343E-02
  1.74582491644937055E-02  1.76778469055936076E-02  1.79002068462383729E-02
  1.81253637306211142E-02  1.83533527399631011E-02  1.85842094980108972E-02
  1.88179700766026234E-02  1.90546710013042783E-02  1.92943492571169134E-02
  1.95370422942556347E-02  1.97827880340012523E-02  2.00316248746255782E-02
  2.02835916973912213E-02  2.05387278726268697E-02  2.07970732658789847E-02
  2.10586682441408664E-02  2.13235536821600909E-02  2.15917709688252558E-02
  2.18633620136331024E-02  2.21383692532369329E-02  2.24168356580774393E-02
  2.26988047390969359E-02  2.29843205545379875E-02  2.32734277168276486E-02
  2.35661713995482247E-02  2.38625973444957229E-02  2.41627518688271349E-02
  2.44666818722975472E-02  2.47744348445883625E-02  2.50860588727276207E-02
  2.54016026486037251E-02  2.57211154765736374E-02  2.60446472811667780E-02
  2.63722486148858515E-02  2.67039706661057544E-02  2.70398652670718852E-02
  2.73799849019990341E-02  2.77243827152721320E-02  2.80731125197501846E-02
  2.84262288051746366E-02  2.87837867466835089E-02  2.91458422134326239E-02
  2.95124517773252618E-02  2.98836727218516549E-02  3.02595630510396445E-02
  3.06401814985179169E-02  3.10255875366932665E-02  3.14158413860432736E-02
  3.18110040245258713E-02  3.22111371971072966E-02  3.26163034254098316E-02
  3.30265660174809822E-02  3.34419890776854259E-02  3.38626375167215138E-02
  3.42885770617636712E-02  3.47198742667323701E-02  3.51565965226933799E-02
  3.55988120683877127E-02  3.60465900008940798E-02  3.65000002864254436E-02
  3.69591137712613829E-02  3.74240021928179886E-02  3.78947381908569386E-02
  3.83713953188356688E-02  3.88540480554001658E-02  3.93427718160224912E-02
  3.98376429647845712E-02  4.03387388263102067E-02  4.08461376978472568E-02
  4.13599188615017058E-02  4.18801625966256780E-02  4.24069501923612230E-02
  4.29403639603419263E-02  4.34804872475542947E-02  4.40274044493608324E-02
  4.45812010226870198E-02  4.51419634993741742E-02  4.57097794997001344E-02
  4.62847377460701981E-02  4.68669280768801086E-02  4.74564414605535417E-02
  4.80533700097560620E-02  4.86578069957879639E-02  4.92698468631580233E-02
  4.98895852443407214E-02  5.05171189747190136E-02  5.11525461077149760E-02
  5.17959659301109460E-02  5.24474789775631958E-02  5.31071870503109084E-02
  5.37751932290826476E-02  5.44516018912029123E-02  5.51365187269013332E-02
  5.58300507558269349E-02  5.65323063437702597E-02  5.72433952195956705E-02
  5.79634284923867329E-02  5.86925186688072587E-02  5.94307796706806252E-02
  6.01783268527903911E-02  6.09352770209046768E-02  6.17017484500272453E-02
  6.24778609028783447E-02  6.32637356486076968E-02  6.40594954817431950E-02
  6.48652647413777844E-02  6.56811693305976302E-02  6.65073367361547624E-02
  6.73438960483871418E-02  6.81909779813892891E-02  6.90487148934366551E-02
  6.99172408076668278E-02  7.07966914330209474E-02  7.16872041854484388E-02
  7.25889182093786695E-02  7.35019743994624053E-02  7.44265154225870057E-02
  7.53626857401682726E-02  7.63106316307230331E-02  7.72705012127253010E-02
  7.82424444677500830E-02  7.92266132639084658E-02  8.02231613795771209E-02
  8.12322445274266114E-02  8.22540203787518187E-02  8.32886485881082911E-02
  8.43362908182587467E-02  8.53971107654330625E-02  8.64712741849062438E-02
  8.75589489168979856E-02  8.86603049127980686E-02  8.97755142617215757E-02
  9.09047512173981748E-02  9.20481922253996304E-02  9.32060159507098196E-02
  9.43784033056414146E-02  9.55655374781038958E-02  9.67676039602268917E-02
  9.79847905773438971E-02  9.92172875173402274E-02  1.00465287360370276E-01
  1.01728985108948622E-01  1.03008578218419439E-01  1.04304266627809464E-01
  1.05616252791068774E-01  1.06944741708704619E-01  1.08289940959813230E-01
  1.09652060734514403E-01  1.11031313866794171E-01  1.12427915867760603E-01
  1.13842084959317760E-01  1.15274042108263322E-01  1.16724011060815161E-01
  1.18192218377572100E-01  1.19678893468914457E-01  1.21184268630849939E-01
  1.22708579081310318E-01  1.24252062996904680E-01  1.25814961550135079E-01
  1.27397518947080235E-01  1.28999982465553165E-01  1.30622602493738776E-01
  1.32265632569317837E-01  1.33929329419082366E-01  1.35613952999049908E-01
  1.37319766535082349E-01  1.39047036564015097E-01  1.40796032975304408E-01
  1.42567029053197819E-01  1.44360301519435658E-01  1.46176130576489288E-01
  1.48014799951343035E-01  1.49876596939827744E-01  1.51761812451510575E-01
  1.53670741055150717E-01  1.55603681024726326E-01  1.57560934386040130E-01
  1.59542806963912043E-01  1.61549608429964409E-01  1.63581652351009132E-01
  1.65639256238043237E-01  1.67722741595860120E-01  1.69832433973286012E-01
  1.71968663014047007E-01  1.74131762508276833E-01  1.76322070444672491E-01
  1.78539929063305097E-01  1.80785684909096189E-01  1.83059688885965716E-01
  1.85362296311661373E-01  1.87693866973278362E-01  1.90054765183475943E-01
  1.92445359837402991E-01  1.94866024470337740E-01  1.97317137316053909E-01
  1.99799081365920644E-01  2.02312244428745069E-01  2.04857019191369061E-01
  2.07433803280026530E-01  2.10042999322473778E-01  2.12685015010901063E-01
  2.15360263165634697E-01  2.18069161799641947E-01  2.20812134183845543E-01
  2.23589608913261045E-01  2.26402019973965918E-01  2.29249806810910145E-01
  2.32133414396580973E-01  2.35053293300530430E-01  2.38009899759777627E-01
  2.41003695750097252E-01  2.44035149058203588E-01  2.47104733354843731E-01
  2.50212928268809032E-01  2.53360219461878422E-01  2.56547098704704213E-01
  2.59774063953651602E-01  2.63041619428606321E-01  2.66350275691759064E-01
  2.69700549727382388E-01  2.73092965022610767E-01  2.76528051649235773E-01
  2.80006346346531765E-01  2.83528392605121748E-01  2.87094740751899169E-01
  2.90705948036017958E-01  2.94362578715963108E-01  2.98065204147718088E-01
  3.01814402874039489E-01  3.05610760714856045E-01  3.09454870858804298E-01
  3.13347333955914964E-01  3.17288758211466460E-01  3.21279759481017502E-01
  3.25320961366636074E-01  3.29412995314338930E-01  3.33556500712755499E-01
  3.37752124993034530E-01  3.42000523730005723E-01  3.46302360744615068E-01
  3.50658308207648650E-01  3.55069046744759254E-01  3.59535265542817561E-01
  3.64057662457597020E-01  3.68636944122816446E-01  3.73273826060552927E-01
  3.77969032793042614E-01  3.82723297955890440E-01  3.87537364412700425E-01
  3.92411984371150657E-01  3.97347919500527391E-01  4.02345941050736566E-01
  4.07406829972814299E-01  4.12531377040950886E-01  4.17720382976051519E-01
  4.22974658570851092E-01  4.28295024816600811E-01  4.33682313031351296E-01
  4.39137364989846457E-01  4.44661033055053001E-01  4.50254180311344454E-01
  4.55917680699358674E-01  4.61652419152554061E-01  4.67459291735481175E-01
  4.73339205783795069E-01  4.79293080046028996E-01  4.85321844827149240E-01
  4.91426442133918839E-01  4.97607825822086791E-01  5.03866961745430220E-01
  5.10204827906671876E-01  5.16622414610293568E-01  5.23120724617274768E-01
  5.29700773301774785E-01  5.36363588809787517E-01  5.43110212219792277E-01
  5.49941697705422672E-01  5.56859112700184400E-01  5.63863538064244385E-01
  5.70956068253315907E-01  5.78137811489671583E-01  5.85409889935302852E-01
  5.92773439867262053E-01  6.00229611855207734E-01  6.07779570941182068E-01
  6.15424496821653344E-01  6.23165584031843967E-01  6.31004042132379483E-01
  6.38941095898286071E-01  6.46977985510362341E-01  6.55115966748961776E-01
  6.63356311190209547E-01  6.71700306404689362E-01  6.80149256158630200E-01
  6.88704480617619907E-01  6.97367316552886418E-01  7.06139117550169337E-01
  7.15021254221220204E-01  7.24015114417965622E-01  7.33122103449358686E-01
  7.42343644300964445E-01  7.51681177857302263E-01  7.61136163126987064E-01
  7.70710077470704413E-01  7.80404416832047976E-01  7.90220695971267095E-01
  8.00160448701948246E-01  8.10225228130677655E-01  8.20416606899718959E-01
  8.30736177432738532E-01  8.41185552183628227E-01  8.51766363888452060E-01
  8.62480265820565029E-01  8.73328932048942574E-01  8.84314057699753908E-01
  8.95437359221232243E-01  9.06700574651870261E-01  9.18105463891993878E-01
  9.29653808978751162E-01  9.41347414364556601E-01  9.53188107199042012E-01
  9.65177737614554387E-01  9.77318179015238320E-01  9.89611328369762733E-01
  1.00205910650772467E+00  1.01466345841978289E+00  1.02742635356156886E+00
  1.04034978616141371E+00  1.05343577553195478E+00  1.06668636638565406E+00
  1.08010362915429070E+00  1.09368966031247150E+00  1.10744658270520513E+00
  1.12137654587960367E+00  1.13548172642075440E+00  1.14976432829181396E+00
  1.16422658317838179E+00  1.17887075083720960E+00  1.19369911944928697E+00
  1.20871400597737777E+00  1.22391775652805057E+00  1.23931274671825986E+00
  1.25490138204654600E+00  1.27068609826889389E+00  1.28666936177932723E+00
  1.30285366999528751E+00  1.31924155174786017E+00  1.33583556767691203E+00
  1.35263831063119233E+00  1.36965240607347249E+00  1.38688051249078126E+00
  1.40432532180979552E+00  1.42198955981746611E+00  1.43987598658691862E+00
  1.45798739690872536E+00  1.47632662072759757E+00  1.49489652358456726E+00
  1.51370000706473884E+00  1.53274000925066090E+00  1.55201950518141207E+00
  1.57154150731745590E+00  1.59130906601134292E+00  1.61132526998433900E+00
  1.63159324680903706E+00  1.65211616339805101E+00  1.67289722649885242E+00
  1.69393968319482879E+00  1.71524682141265283E+00  1.73682197043601927E+00
  1.75866850142585829E+00  1.78078982794708374E+00  1.80318940650196935E+00
  1.82587073707024006E+00  1.84883736365594076E+00  1.87209287484120157E+00
  1.89564090434695887E+00  1.91948513160073020E+00  1.94362928231153842E+00
  1.96807712905205245E+00  1.99283249184806488E+00  2.01789923877537758E+00
  2.04328128656419539E+00  2.06898260121112854E+00  2.09500719859887896E+00
  2.12135914512373525E+00  2.14804255833095592E+00  2.17506160755814104E+00
  2.20242051458670529E+00  2.23012355430153386E+00  2.25817505535894325E+00
  2.28657940086304601E+00  2.31534102905061268E+00  2.34446443398456861E+00
  2.37395416625618472E+00  2.40381483369612603E+00  2.43405110209443087E+00
  2.46466769592955215E+00  2.49566939910656904E+00  2.52706105570467532E+00
  2.55884757073408187E+00  2.59103391090243074E+00  2.62362510539085569E+00
  2.65662624663980651E+00  2.69004249114474314E+00  2.72387906026185522E+00
  2.75814124102390812E+00  2.79283438696635100E+00  2.82796391896382504E+00
  2.86353532607717431E+00  2.89955416641113084E+00  2.93602606798277854E+00
  2.97295672960093693E+00  3.01035192175662614E+00  3.04821748752469723E+00
  3.08655934347684191E+00  3.12538348060605786E+00  3.16469596526275820E+00
  3.20450294010265768E+00  3.24481062504656004E+00  3.28562531825224413E+00
  3.32695339709856208E+00  3.36880131918191283E+00  3.41117562332526836E+00
  3.45408293059985905E+00  3.49752994535974260E+00  3.54152345628936827E+00
  3.58607033746432124E+00  3.63117754942542303E+00  3.67685214026631124E+00
  3.72310124673472931E+00  3.76993209534765850E+00  3.81735200352046844E+00
  3.86536838071029454E+00  3.91398872957376032E+00  3.96322064713929390E+00
  4.01307182599417711E+00  4.06355005548652759E+00  4.11466322294240783E+00
  4.16641931489821982E+00  4.21882641834863126E+00  4.27189272201017811E+00
  4.32562651760076911E+00  4.38003620113529379E+00  4.43513027423749939E+00
  4.49091734546839660E+00  4.54740613167136676E+00  4.60460545933417453E+00
  4.66252426596815095E+00  4.72117160150466475E+00  4.78055662970921080E+00
  4.84068862961326740E+00  4.90157699696415428E+00  4.96323124569315688E+00
  5.02566100940207239E+00  5.08887604286849182E+00  5.15288622357001014E+00
  5.21770155322758367E+00  5.28333215936835021E+00  5.34978829690804147E+00
  5.41708034975335373E+00  5.48521883242444908E+00  5.55421439169787146E+00
  5.62407780827013859E+00  5.69481999844222209E+00  5.76645201582526390E+00
  5.83898505306771654E+00  5.91243044360421344E+00  5.98679966342646086E+00
  6.06210433287635819E+00  6.13835621846171442E+00  6.21556723469478811E+00
  6.29374944595394670E+00  6.37291506836877453E+00  6.45307647172883048E+00
  6.53424618141648050E+00  6.61643688036400412E+00  6.69966141103532387E+00
  6.78393277743269163E+00  6.86926414712855049E+00  6.95566885332302576E+00
  7.04316039692725049E+00  7.13175244867291003E+00  7.22145885124834397E+00
  7.31229362146145778E+00  7.40427095242990241E+00  7.49740521579876962E+00
  7.59171096398618861E+00  7.68720293245719244E+00  7.78389604202612961E+00
  7.88180540118809247E+00  7.98094630847964748E+00  8.08133425486925816E+00
  8.18298492617780049E+00  8.28591420552947255E+00  8.39013817583357913E+00
  8.49567312229753036E+00  8.60253553497141432E+00  8.71074211132463816E+00
  8.82030975885490065E+00  8.93125559773004163E+00  9.04359696346311104E+00
  9.15735140962105376E+00  9.27253671056753426E+00  9.38917086424016212E+00
  9.50727209496274561E+00  9.62685885629286275E+00  9.74794983390526149E+00
  9.87056394851157570E+00  9.99472035881666265E+00  1.01204384645122314E+01
  1.02477379093080732E+01  1.03766385840014177E+01  1.05071606295849591E+01
  1.06393244403938567E+01  1.07731506672924393E+01  1.09086602209009325E+01
  1.10458742748627738E+01  1.11848142691530761E+01  1.13255019134286172E+01
  1.14679591904200411E+01  1.16122083593667149E+01  1.17582719594947509E+01
  1.19061728135388574E+01  1.20559340313083752E+01  1.22075790132982771E+01
  1.23611314543455144E+01  1.25166153473314026E+01  1.26740549869305728E+01
  1.28334749734070179E+01  1.29949002164579657E+01  1.31583559391060625E+01
  1.33238676816405164E+01  1.34914613056078583E+01  1.36611629978527951E+01
  1.38329992746099961E+01  1.40069969856473104E+01  1.41831833184610758E+01
  1.43615858025242762E+01  1.45422323135879914E+01  1.47251510780371095E+01
  1.49103706773007207E+01
                               </PP_R> 
 <PP_RAB type="real" size="  1102" columns="3">
  1.96526285679852649E-07  1.98998282040737557E-07  2.01501372288056528E-07