<UPF version="2.0.1">
   <PP_INFO>
         UPF file from ATOMPAW code with following input
           La  57
           GGA-PBE  loggrid 2001 scalarrelativistic logderivrange -8 8 500
           6 5 5 4 0
           5 2 1
           4 3 0
           0 0 0
           c
           c
           c
           c
           v
           v
           c
           c
           c
           v
           c
           c
           v
           v
           3
           2.45 2.041 2.45 1.64596                                             ! rpaw, rshape, rveff, rcore
           n
           y
           2.0
           n
           y
           2.0
           n
           y
           2.0
           n
           VANDERBILT BESSELSHAPE
           4 0.0
           2.41
           2.41
           2.41
           2.41
           2.41
           2.41
           2.41
           2.41
           PWSCFOUT
           UPFDX  0.0125d0  UPFXMIN  -7.d0  UPFZMESH  57.0
           END
  </PP_INFO>
  <!--                               -->
  <!-- END OF HUMAN READABLE SECTION -->
  <PP_HEADER generated="Generated using ATOMPAW code"
             author="   "
             date=" 06/16/2022, 13:38:51.833"
             element="La"
             pseudo_type="PAW"
             relativistic="scalar"
             is_ultrasoft="T"
             is_paw="T"
             is_coulomb="F"
             has_so="F"
             has_wfc="T"
             has_gipaw="T"
             paw_as_gipaw="T"
             core_correction="T"
             functional="SLA PW PBX PBC"
             z_valence="11.000"
             l_max="3"
             l_max_rho="6"
             mesh_size="   699"
             number_of_wfc="     8"
             number_of_proj=" 8"
                                    /> 
<PP_MESH dx=" 1.2500000000000E-02" mesh="  1101" xmin="-7.0000000000000E+00" zmesh=" 5.7000000000000E+01">
 <PP_R type="real" size="  1101" columns="3">
  1.59979292202546726E-05  1.61991583977021459E-05  1.64029187266067031E-05
  1.66092420449342797E-05  1.68181605911231570E-05  1.70297070091212097E-05
  1.72439143534866434E-05  1.74608160945528287E-05  1.76804461236580792E-05
  1.79028387584413085E-05  1.81280287482041582E-05  1.83560512793406761E-05
  1.85869419808352644E-05  1.88207369298297701E-05  1.90574726572606654E-05
  1.92971861535669858E-05  1.95399148744702323E-05  1.97856967468268846E-05
  2.00345701745545178E-05  2.02865740446325906E-05  2.05417477331784974E-05
  2.08001311116002253E-05  2.10617645528263296E-05  2.13266889376142923E-05
  2.15949456609382624E-05  2.18665766384570092E-05  2.21416243130634118E-05
  2.24201316615162186E-05  2.27021422011552298E-05  2.29876999967010542E-05
  2.32768496671402029E-05  2.35696363926969602E-05  2.38661059218928742E-05
  2.41663045786950376E-05  2.44702792697543635E-05  2.47780774917347653E-05
  2.50897473387346385E-05  2.54053375098016770E-05  2.57248973165421587E-05
  2.60484766908260863E-05  2.63761261925889877E-05  2.67078970177321340E-05
  2.70438410061219364E-05  2.73840106496900403E-05  2.77284591006353865E-05
  2.80772401797291993E-05  2.84304083847246787E-05  2.87880188988723856E-05
  2.91501275995427013E-05  2.95167910669568639E-05  2.98880665930276137E-05
  3.02640121903112709E-05  3.06446866010722755E-05  3.10301493064617654E-05
  3.14204605358117504E-05  3.18156812760458783E-05  3.22158732812088979E-05
  3.26210990821158080E-05  3.30314219961224089E-05  3.34469061370188851E-05
  3.38676164250475344E-05  3.42936185970467878E-05  3.47249792167227507E-05
  3.51617656850498057E-05  3.56040462508023484E-05  3.60518900212185807E-05
  3.65053669727987575E-05  3.69645479622391962E-05  3.74295047375036477E-05
  3.79003099490342929E-05  3.83770371611032439E-05  3.88597608633073105E-05
  3.93485564822070792E-05  3.98435003931124011E-05  4.03446699320164222E-05
  4.08521434076791859E-05  4.13660001138637355E-05  4.18863203417258479E-05
  4.24131853923597098E-05  4.29466775895014536E-05  4.34868802923922537E-05
  4.40338779088034847E-05  4.45877559082255860E-05  4.51486008352228042E-05
  4.57165003229561141E-05  4.62915431068758185E-05  4.68738190385868539E-05
  4.74634190998881854E-05  4.80604354169889198E-05  4.86649612749033122E-05
  4.92770911320265426E-05  4.98969206348941704E-05  5.05245466331270682E-05
  5.11600671945643435E-05  5.18035816205867809E-05  5.24551904616326359E-05
  5.31149955329090391E-05  5.37830999303007590E-05  5.44596080464791014E-05
  5.51446255872136906E-05  5.58382595878888937E-05  5.65406184302285334E-05
  5.72518118592306720E-05  5.79719510003154749E-05  5.87011483766889796E-05
  5.94395179269247684E-05  6.01871750227672735E-05  6.09442364871588330E-05
  6.17108206124934749E-05  6.24870471791005242E-05  6.32730374739601893E-05
  6.40689143096551513E-05  6.48748020435602175E-05  6.56908265972733387E-05
  6.65171154762913712E-05  6.73537977899326984E-05  6.82010042715110621E-05
  6.90588672987628660E-05  6.99275209145314093E-05  7.08071008477115444E-05
  7.16977445344573085E-05  7.25995911396567839E-05  7.35127815786768295E-05
  7.44374585393814110E-05  7.53737665044270126E-05  7.63218517738380566E-05
  7.72818624878667784E-05  7.82539486501403870E-05  7.92382621510994014E-05
  8.02349567917311077E-05  8.12441883076008052E-05  8.22661143931861550E-05
  8.33008947265171512E-05  8.43486909941261345E-05  8.54096669163116400E-05
  8.64839882727202021E-05  8.75718229282494216E-05  8.86733408592774451E-05
  8.97887141802220293E-05  9.09181171704337687E-05  9.20617263014277985E-05
  9.32197202644574683E-05  9.43922799984354483E-05  9.55795887182057778E-05
  9.67818319431714243E-05  9.79991975262824481E-05  9.92318756833878617E-05
  1.00480059022957637E-04  1.01743942576178016E-04  1.03023723827425480E-04
  1.04319602745124457E-04  1.05631781812992254E-04  1.06960466061677863E-04
  1.08305863100798379E-04  1.09668183151378267E-04  1.11047639078697320E-04
  1.12444446425550575E-04  1.13858823445927838E-04  1.15290991139116122E-04
  1.16741173284231120E-04  1.18209596475183637E-04  1.19696490156084693E-04
  1.21202086657097062E-04  1.22726621230737131E-04  1.24270332088633666E-04
  1.25833460438749112E-04  1.27416250523068261E-04  1.29018949655762045E-04
  1.30641808261830591E-04  1.32285079916232782E-04  1.33949021383508097E-04
  1.35633892657895973E-04  1.37339957003960935E-04  1.39067480997728127E-04
  1.40816734568336024E-04  1.42587991040214230E-04  1.44381527175790013E-04
  1.46197623218733493E-04  1.48036562937746267E-04  1.49898633670900698E-04
  1.51784126370537429E-04  1.53693335648726797E-04  1.55626559823302777E-04
  1.57584100964475876E-04  1.59566264942031838E-04  1.61573361473125256E-04
  1.63605704170672391E-04  1.65663610592354594E-04  1.67747402290237084E-04
  1.69857404861011995E-04  1.71993947996874175E-04  1.74157365537035299E-04
  1.76347995519887484E-04  1.78566180235822399E-04  1.80812266280714739E-04
  1.83086604610079018E-04  1.85389550593906212E-04  1.87721464072191713E-04
  1.90082709411160729E-04  1.92473655560201364E-04  1.94894676109514140E-04
  1.97346149348485338E-04  1.99828458324796096E-04  2.02341990904274249E-04
  2.04887139831498978E-04  2.07464302791168743E-04  2.10073882470238993E-04
  2.12716286620843841E-04  2.15391928124007850E-04  2.18101225054159341E-04
  2.20844600744456122E-04  2.23622483852931037E-04  2.26435308429471453E-04
  2.29283513983640202E-04  2.32167545553349622E-04  2.35087853774400496E-04
  2.38044894950893585E-04  2.41039131126528818E-04  2.44071030156800561E-04
  2.47141065782100400E-04  2.50249717701741322E-04  2.53397471648910181E-04
  2.56584819466565319E-04  2.59812259184287963E-04  2.63080295096100071E-04
  2.66389437839262202E-04  2.69740204474060218E-04  2.73133118564598083E-04
  2.76568710260605252E-04  2.80047516380273838E-04  2.83570080494138126E-04
  2.87136953010007508E-04  2.90748691258969406E-04  2.94405859582473205E-04
  2.98109029420509934E-04  3.01858779400901466E-04  3.05655695429710779E-04
  3.09500370782792315E-04  3.13393406198492132E-04  3.17335409971514009E-04
  3.21326998047968034E-04  3.25368794121612035E-04  3.29461429731305413E-04
  3.33605544359688675E-04  3.37801785533104046E-04  3.42050808922771859E-04
  3.46353278447241754E-04  3.50709866376130335E-04  3.55121253435164745E-04
  3.59588128912548374E-04  3.64111190766662149E-04  3.68691145735123335E-04
  3.73328709445213595E-04  3.78024606525697747E-04  3.82779570720048670E-04
  3.87594345001095512E-04  3.92469681687115826E-04  3.97406342559385476E-04
  4.02405098981209290E-04  4.07466732018448670E-04  4.12592032561563292E-04
  4.17781801449190857E-04  4.23036849593278494E-04  4.28357998105790107E-04
  4.33746078427007012E-04  4.39201932455441214E-04  4.44726412679385019E-04
  4.50320382310112860E-04  4.55984715416760491E-04  4.61720297062900257E-04
  4.67528023444833084E-04  4.73408802031622571E-04  4.79363551706887164E-04
  4.85393202912378556E-04  4.91498697793365342E-04  4.97680990345843871E-04
  5.03941046565604066E-04  5.10279844599166197E-04  5.16698374896619071E-04
  5.23197640366380892E-04  5.29778656531903558E-04  5.36442451690352586E-04
  5.43190067073278824E-04  5.50022557009313836E-04  5.56940989088911486E-04
  5.63946444331159063E-04  5.71040017352691747E-04  5.78222816538725721E-04
  5.85495964216246998E-04  5.92860596829378195E-04  6.00317865116947974E-04
  6.07868934292298707E-04  6.15514984225351558E-04  6.23257209626964332E-04
  6.31096820235608211E-04  6.39035041006390052E-04  6.47073112302456359E-04
  6.55212290088800380E-04  6.63453846128510185E-04  6.71799068181485248E-04
  6.80249260205649303E-04  6.88805742560698493E-04  6.97469852214409108E-04
  7.06242942951541223E-04  7.15126385585372398E-04  7.24121568171886805E-04
  7.33229896226665211E-04  7.42452792944496738E-04  7.51791699421757624E-04
  7.61248074881585484E-04  7.70823396901884530E-04  7.80519161646202092E-04
  7.90336884097505698E-04  8.00278098294901811E-04  8.10344357573335476E-04
  8.20537234806297867E-04  8.30858322651595294E-04  8.41309233800201250E-04
  8.51891601228245161E-04  8.62607078452168091E-04  8.73457339787086715E-04
  8.84444080608410101E-04  8.95569017616744140E-04  9.06833889106129659E-04
  9.18240455235656318E-04  9.29790498304488167E-04  9.41485823030353223E-04
  9.53328256831534912E-04  9.65319650112407557E-04  9.77461876552568809E-04
  9.89756833399603074E-04  1.00220644176553155E-03  1.01481264692699085E-03
  1.02757741862918471E-03  1.04050275139366214E-03  1.05359066482996438E-03
  1.06684320395119257E-03  1.08026243949354791E-03  1.09385046823988474E-03
  1.10760941334734036E-03  1.12154142467908073E-03  1.13564867914022014E-03
  1.14993338101797120E-03  1.16439776232606313E-03  1.17904408315350488E-03
  1.19387463201772325E-03  1.20889172622215069E-03  1.22409771221830988E-03
  1.23949496597244900E-03  1.25508589333679405E-03  1.27087293042546490E-03
  1.28685854399512509E-03  1.30304523183041930E-03  1.31943552313425259E-03
  1.33603197892298857E-03  1.35283719242660955E-03  1.36985378949391521E-03
  1.38708442900281896E-03  1.40453180327579905E-03  1.42219863850058374E-03
  1.44008769515611978E-03  1.45820176844390454E-03  1.47654368872474399E-03
  1.49511632196099704E-03  1.51392257016439531E-03  1.53296537184948118E-03
  1.55224770249275980E-03  1.57177257499762648E-03  1.59154304016513180E-03
  1.61156218717068301E-03  1.63183314404672861E-03  1.65235907817152085E-03
  1.67314319676402910E-03  1.69418874738506715E-03  1.71549901844473846E-03
  1.73707733971625151E-03  1.75892708285620603E-03  1.78105166193142251E-03
  1.80345453395239284E-03  1.82613919941345066E-03  1.84910920283972617E-03
  1.87236813334098616E-03  1.89591962517244401E-03  1.91976735830261280E-03
  1.94391505898831429E-03  1.96836650035690872E-03  1.99312550299585558E-03
  2.01819593554969194E-03  2.04358171532450800E-03  2.06928680890004421E-03
  2.09531523274946807E-03  2.12167105386695939E-03  2.14835839040319193E-03
  2.17538141230879355E-03  2.20274434198591698E-03  2.23045145494799382E-03
  2.25850708048779339E-03  2.28691560235388947E-03  2.31568145943561801E-03
  2.34480914645667469E-03  2.37430321467741639E-03  2.40416827260600844E-03
  2.43440898671851407E-03  2.46503008218803762E-03  2.49603634362304590E-03
  2.52743261581497023E-03  2.55922380449521807E-03  2.59141487710169921E-03
  2.62401086355500178E-03  2.65701685704432602E-03  2.69043801482330694E-03
  2.72427955901584232E-03  2.75854677743206421E-03  2.79324502439456642E-03
  2.82837972157503129E-03  2.86395635884137585E-03  2.89998049511555351E-03
  2.93645775924215001E-03  2.97339385086789736E-03  3.01079454133225920E-03
  3.04866567456921330E-03  3.08701316802037842E-03  3.12584301355962272E-03
  3.16516127842931269E-03  3.20497410618832785E-03  3.24528771767200594E-03
  3.28610841196415966E-03  3.32744256738132151E-03  3.36929664246937146E-03
  3.41167717701269455E-03  3.45459079305603664E-03  3.49804419593921457E-03
  3.54204417534483267E-03  3.58659760635919415E-03  3.63171145054653815E-03
  3.67739275703680459E-03  3.72364866362707297E-03  3.77048639789685346E-03
  3.81791327833741999E-03  3.86593671549533176E-03  3.91456421313034902E-03
  3.96380336938791100E-03  4.01366187798635980E-03  4.06414752941910290E-03
  4.11526821217188948E-03  4.16703191395540688E-03  4.21944672295337248E-03
  4.27252082908633011E-03  4.32626252529134253E-03  4.38068020881778302E-03
  4.43578238253941257E-03  4.49157765628298549E-03  4.54807474817353705E-03
  4.60528248599662016E-03  4.66320980857766031E-03  4.72186576717866478E-03
  4.78125952691250359E-03  4.84140036817496885E-03  4.90229768809486658E-03
  4.96396100200233257E-03  5.02639994491561621E-03  5.08962427304658627E-03
  5.15364386532513909E-03  5.21846872494281886E-03  5.28410898091582776E-03
  5.35057488966770786E-03  5.41787683663192896E-03  5.48602533787462959E-03
  5.55503104173777750E-03  5.62490473050299492E-03  5.69565732207631247E-03
  5.76729987169410929E-03  5.83984357365052026E-03  5.91329976304656810E-03
  5.98767991756129440E-03  6.06299565924516785E-03  6.13925875633606136E-03
  6.21648112509804937E-03  6.29467483168336377E-03  6.37385209401774341E-03
  6.45402528370951634E-03  6.53520692798268549E-03  6.61740971163433424E-03
  6.70064647901665034E-03  6.78493023604388300E-03  6.87027415222454547E-03
  6.95669156271917517E-03  7.04419597042397864E-03  7.13280104808068811E-03
  7.22252064041295754E-03  7.31336876628962355E-03  7.40535962091518583E-03
  7.49850757804783850E-03  7.59282719224539313E-03  7.68833320113946304E-03
  7.78504052773824635E-03  7.88296428275827611E-03  7.98211976698550395E-03
  8.08252247366606988E-03  8.18418809092716706E-03  8.28713250422833010E-03
  8.39137179884358320E-03  8.49692226237478386E-03  8.60380038729660103E-03
  8.71202287353350403E-03  8.82160663106914232E-03  8.93256878258858605E-03
  9.04492666615375890E-03  9.15869783791256435E-03  9.27390007484206122E-03
  9.39055137752614795E-03  9.50866997296819817E-03  9.62827431743906378E-03
  9.74938309936090527E-03  9.87201524222729686E-03  9.99618990756005743E-03
  1.01219264979032792E-02  1.02492446598550172E-02  1.03781642871371097E-02
  1.05087055237036084E-02  1.06408887668883092E-02  1.07747346705918956E-02
  1.09102641485091297E-02  1.10474983773966706E-02  1.11864588003819914E-02
  1.13271671303138994E-02  1.14696453531552191E-02  1.16139157314181438E-02
  1.17600008076427995E-02  1.19079234079195549E-02  1.20577066454556573E-02
  1.22093739241867054E-02  1.23629489424335725E-02  1.25184556966053111E-02
  1.26759184849486398E-02  1.28353619113445987E-02  1.29968108891529502E-02
  1.31602906451049485E-02  1.33258267232450670E-02  1.34934449889222950E-02
  1.36631716328316707E-02  1.38350331751066116E-02  1.40090564694627610E-02
  1.41852687073939082E-02  1.43636974224207389E-02  1.45443704943929945E-02
  1.47273161538457494E-02  1.49125629864104992E-02  1.51001399372817213E-02
  1.52900763157396164E-02  1.54824017997297510E-02  1.56771464405002815E-02
  1.58743406672975443E-02  1.60740152921206685E-02  1.62762015145360220E-02
  1.64809309265522147E-02  1.66882355175563928E-02  1.68981476793126709E-02
  1.71107002110233858E-02  1.73259263244540662E-02  1.75438596491228165E-02
  1.77645342375549985E-02  1.79879845706040244E-02  1.82142455628390432E-02
  1.84433525680004311E-02  1.86753413845238553E-02  1.89102482611338933E-02
  1.91481099025079329E-02  1.93889634750113726E-02  1.96328466125049277E-02
  1.98797974222250304E-02  2.01298544907381159E-02  2.03830568899698861E-02
  2.06394441833103667E-02  2.08990564317957650E-02  2.11619342003680905E-02
  2.14281185642135157E-02  2.16976511151804434E-02  2.19705739682783292E-02
  2.22469297682582438E-02  2.25267616962761749E-02  2.28101134766402029E-02
  2.30970293836424943E-02  2.33875542484772506E-02  2.36817334662456774E-02
  2.39796130030490683E-02  2.42812394031710864E-02  2.45866597963504165E-02
  2.48959219051448737E-02  2.52090740523881578E-02  2.55261651687403862E-02
  2.58472448003336137E-02  2.61723631165135251E-02  2.65015709176784769E-02
  2.68349196432171831E-02  2.71724613795462054E-02  2.75142488682485857E-02
  2.78603355143148060E-02  2.82107753944874293E-02  2.85656232657107122E-02
  2.89249345736864727E-02  2.92887654615376046E-02  2.96571727785805636E-02
  3.00302140892081612E-02  3.04079476818841406E-02  3.07904325782508669E-02
  3.11777285423515647E-02  3.15698960899685882E-02  3.19669964980791171E-02
  3.23690918144298387E-02  3.27762448672319837E-02  3.31885192749784286E-02
  3.36059794563841538E-02  3.40286906404518377E-02  3.44567188766639956E-02
  3.48901310453033839E-02  3.53289948679031129E-02  3.57733789178283565E-02
  3.62233526309910028E-02  3.66789863166992400E-02  3.71403511686434346E-02
  3.76075192760203514E-02  3.80805636347972543E-02  3.85595581591175879E-02
  3.90445776928503296E-02  3.95356980212843781E-02  4.00329958829702542E-02
  4.05365489817106142E-02  4.10464359987016136E-02  4.15627366048270316E-02
  4.20855314731070004E-02  4.26149022913033179E-02  4.31509317746833487E-02
  4.36937036789444150E-02  4.42433028133008624E-02  4.47998150537355783E-02
  4.53633273564183759E-02  4.59339277712930219E-02  4.65117054558352241E-02
  4.70967506889837101E-02  4.76891548852464292E-02  4.82890106089843077E-02
  4.88964115888745887E-02  4.95114527325561729E-02  5.01342301414590408E-02
  5.07648411258203869E-02  5.14033842198895197E-02  5.20499591973240111E-02
  5.27046670867795594E-02  5.33676101876958825E-02  5.40388920862812788E-02
  5.47186176716981318E-02  5.54068931524520844E-02  5.61038260729873201E-02
  5.68095253304905651E-02  5.75241011919065820E-02  5.82476653111675263E-02
  5.89803307466391299E-02  5.97222119787863340E-02  6.04734249280609870E-02
  6.12340869730147869E-02  6.20043169686398457E-02  6.27842352649400082E-02
  6.35739637257358575E-02  6.43736257477060675E-02  6.51833462796685276E-02
  6.60032518421037190E-02  6.68334705469239010E-02  6.76741321174908067E-02
  6.85253679088851514E-02  6.93873109284312145E-02  7.02600958564794098E-02
  7.11438590674504656E-02  7.20387386511441158E-02  7.29448744343159650E-02
  7.38624080025256646E-02  7.47914827222599943E-02  7.57322437633341505E-02
  7.66848381215747416E-02  7.76494146417883585E-02  7.86261240410187218E-02
  7.96151189320965791E-02  8.06165538474858112E-02  8.16305852634293533E-02
  8.26573716243990120E-02  8.36970733678527312E-02  8.47498529493031783E-02
  8.58158748677018829E-02  8.68953056911424132E-02  8.79883140828870425E-02
  8.90950708277207654E-02  9.02157488586366324E-02  9.13505232838570380E-02
  9.24995714141946396E-02  9.36630727907575289E-02  9.48412092130029721E-02
  9.60341647671438953E-02  9.72421258549127365E-02  9.84652812226870233E-02
  9.97038219909815171E-02  1.00957941684311117E-01  1.02227836261429408E-01
  1.03513704145947710E-01  1.04815746257339068E-01  1.06134166042332445E-01
  1.07469169506701559E-01  1.08820965247453827E-01  1.10189764485423988E-01
  1.11575781098277815E-01  1.12979231653930909E-01  1.14400335444387991E-01
  1.15839314520007536E-01  1.17296393724197770E-01  1.18771800728548760E-01
  1.20265766068406693E-01  1.21778523178895412E-01  1.23310308431391166E-01
  1.24861361170456112E-01  1.26431923751236353E-01  1.28022241577330442E-01
  1.29632563139134266E-01  1.31263140052668120E-01  1.32914227098892085E-01
  1.34586082263516371E-01  1.36278966777311883E-01  1.37993145156927982E-01
  1.39728885246224149E-01  1.41486458258120618E-01  1.43266138816976418E-01
  1.45068205001499556E-01  1.46892938388197697E-01  1.48740624095375057E-01
  1.50611550827682406E-01  1.52506010921228230E-01  1.54424300389256364E-01
  1.56366718968398960E-01  1.58333570165511001E-01  1.60325161305093472E-01
  1.62341803577314009E-01  1.64383812086630443E-01  1.66451505901026836E-01
  1.68545208101868571E-01  1.70665245834384000E-01  1.72811950358782274E-01
  1.74985657102012748E-01  1.77186705710176445E-01  1.79415440101596574E-01
  1.81672208520556044E-01  1.83957363591711914E-01  1.86271262375193175E-01
  1.88614266422392290E-01  1.90986741832458673E-01  1.93389059309501843E-01
  1.95821594220515316E-01  1.98284726654027882E-01  2.00778841479493458E-01
  2.03304328407428014E-01  2.05861582050302000E-01  2.08451001984200107E-01
  2.11072992811255078E-01  2.13727964222868050E-01  2.16416331063723877E-01
  2.19138513396610751E-01  2.21894936568056728E-01  2.24686031274790199E-01
  2.27512233631037564E-01  2.30373985236667078E-01  2.33271733246189272E-01
  2.36205930438626255E-01  2.39177035288259010E-01  2.42185512036264955E-01
  2.45231830763256858E-01  2.48316467462733476E-01  2.51439904115455026E-01
  2.54602628764753092E-01  2.57805135592788559E-01  2.61047924997769187E-01
  2.64331503672136703E-01  2.67656384681739745E-01  2.71023087546000463E-01
  2.74432138319090857E-01  2.77884069672130252E-01  2.81379420976415384E-01
  2.84918738387698989E-01  2.88502574931527422E-01  2.92131490589651766E-01
  2.95806052387527052E-01  2.99526834482909843E-01  3.03294418255572795E-01
  3.07109392398145442E-01  3.10972353008099112E-01  3.14883903680888588E-01
  3.18844655604264338E-01  3.22855227653772892E-01  3.26916246489456441E-01
  3.31028346653770011E-01  3.35192170670730816E-01  3.39408369146312561E-01
  3.43677600870105293E-01  3.48000532918251448E-01  3.52377840757678529E-01
  3.56810208351642455E-01  3.61298328266597135E-01  3.65842901780410845E-01
  3.70444638991940800E-01  3.75104258931988677E-01  3.79822489675650299E-01
  3.84600068456078470E-01  3.89437741779677993E-01  3.94336265542747810E-01
  3.99296405149591860E-01  4.04318935632115628E-01  4.09404641770924949E-01
  4.14554318217951356E-01  4.19768769620616711E-01  4.25048810747561234E-01
  4.30395266615953731E-01  4.35808972620400858E-01  4.41290774663480267E-01
  4.46841529287913930E-01  4.52462103810404803E-01  4.58153376457157535E-01
  4.63916236501101809E-01  4.69751584400844469E-01  4.75660331941366810E-01
  4.81643402376493224E-01  4.87701730573152303E-01  4.93836263157450106E-01
  5.00047958662584113E-01  5.06337787678614593E-01  5.12706733004121951E-01
  5.19155789799771394E-01  5.25685965743807437E-01  5.32298281189507616E-01
  5.38993769324612848E-01  5.45773476332766183E-01  5.52638461556981597E-01
  5.59589797665166921E-01  5.66628570817731436E-01  5.73755880837301335E-01
  5.80972841380567151E-01  5.88280580112297335E-01  5.95680238881536206E-01
  6.03172973900021003E-01  6.10759955922842934E-01  6.18442370431378285E-01
  6.26221417818524473E-01  6.34098313576262229E-01  6.42074288485579125E-01
  6.50150588808782404E-01  6.58328476484228320E-01  6.66609229323504970E-01
  6.74994141211090359E-01  6.83484522306526010E-01  6.92081699249132543E-01
  7.00787015365297417E-01  7.09601830878375694E-01  7.18527523121224920E-01
  7.27565486751417079E-01  7.36717133969158056E-01  7.45983894737943909E-01
  7.55367217007998915E-01  7.64868566942518036E-01  7.74489429146758779E-01
  7.84231306900015079E-01  7.94095722390504966E-01  8.04084216953219189E-01
  8.14198351310754354E-01  8.24439705817180846E-01  8.34809880704977192E-01
  8.45310496335067274E-01  8.55943193450007689E-01  8.66709633430354676E-01
  8.77611498554259128E-01  8.88650492260327440E-01  8.99828339413784706E-01
  9.11146786575990686E-01  9.22607602277341621E-01  9.34212577293607849E-01
  9.45963524925746757E-01  9.57862281283233141E-01  9.69910705570955045E-01
  9.82110680379722045E-01  9.94464111980417953E-01  1.00697293062186377E+00
  1.01963909083242177E+00  1.03246457172539308E+00  1.04545137730826299E+00
  1.05860153679582458E+00  1.07191710492725223E+00  1.08540016228715697E+00
  1.09905281563068180E+00  1.11287719821269016E+00  1.12687547012108591E+00
  1.14104981861433363E+00  1.15540245846322387E+00  1.16993563229693343E+00
  1.18465161095344129E+00  1.19955269383435348E+00  1.21464120926418673E+00
  1.22991951485417395E+00  1.24538999787064797E+00  1.26105507560805385E+00
  1.27691719576666096E+00  1.29297883683501480E+00  1.30924250847721013E+00
  1.32571075192502952E+00  1.34238614037501569E+00  1.35927127939054215E+00
  1.37636880730893263E+00  1.39368139565370885E+00  1.41121174955202311E+00
  1.42896260815733589E+00  1.44693674507742154E+00  1.46513696880774158E+00
  1.48356612317028191E+00  1.50222708775790625E+00  1.52112277838429644E+00
  1.54025614753955886E+00  1.55963018485154969E+00  1.57924791755301563E+00
  1.59911241095460421E+00  1.61922676892382267E+00  1.63959413437002910E+00
  1.66021768973551143E+00  1.68110065749275361E+00  1.70224630064795512E+00
  1.72365792325087841E+00  1.74533887091112039E+00  1.76729253132086184E+00
  1.78952233478420664E+00  1.81203175475317280E+00  1.83482430837042498E+00
  1.85790355701884091E+00  1.88127310687797467E+00  1.90493660948753862E+00
  1.92889776231795818E+00  1.95316030934811136E+00  1.97772804165033733E+00
  2.00260479798279034E+00  2.02779446538925878E+00  2.05330097980652493E+00
  2.07912832667935676E+00  2.10528054158325384E+00  2.13176171085499933E+00
  2.15857597223116926E+00  2.18572751549465716E+00  2.21322058312933656E+00
  2.24105947098296365E+00  2.26924852893840301E+00  2.29779216159331057E+00
  2.32669482894836266E+00  2.35596104710413190E+00  2.38559538896675383E+00
  2.41560248496243357E+00  2.44598702376097021E+00  2.47675375300836853E+00
  2.50790748006866693E+00  2.53945307277510501E+00  2.57139546019072229E+00
  2.60373963337853942E+00  2.63649064618142104E+00  2.66965361601174767E+00
  2.70323372465103118E+00  2.73723621905956316E+00  2.77166641219627374E+00
  2.80652968384888890E+00  2.84183148147453224E+00  2.87757732105090946E+00
  2.91377278793817718E+00  2.95042353775167676E+00  2.98753529724563416E+00
  3.02511386520797076E+00  3.06316511336639152E+00  3.10169498730583237E+00
  3.14070950739748822E+00  3.18021476973949779E+00  3.22021694710947326E+00
  3.26072228992902025E+00  3.30173712724035928E+00  3.34326786769526585E+00
  3.38532100055643159E+00  3.42790309671141991E+00  3.47102080969939575E+00
  3.51468087675073404E+00  3.55889011983973802E+00  3.60365544675058525E+00
  3.64898385215667798E+00  3.69488241871358847E+00  3.74135831816572040E+00
  3.78841881246691781E+00  3.83607125491516099E+00  3.88432309130152920E+00
  3.93318186107363310E+00  3.98265519851365113E+00  4.03275083393121125E+00
  4.08347659487126791E+00  4.13484040733716895E+00  4.18685029702911660E+00
  4.23951439059818913E+00  4.29284091691615100E+00  4.34683820836123402E+00
  4.40151470212008089E+00  4.45687894150608876E+00  4.51293957729429795E+00
  4.56970536907310532E+00  4.62718518661296940E+00  4.68538801125231785E+00
  4.74432293730092525E+00  4.80399917346088667E+00  4.86442604426551206E+00
  4.92561299153630738E+00  4.98756957585826211E+00  5.05030547807373775E+00
  5.11383050079509083E+00  5.17815456993636047E+00  5.24328773626422073E+00
  5.30924017696841855E+00  5.37602219725200570E+00  5.44364423194151570E+00
  5.51211684711744709E+00  5.58145074176522904E+00  5.65165674944695695E+00
  5.72274583999417619E+00  5.79472912122191097E+00  5.86761784066430359E+00
  5.94142338733206277E+00  6.01615729349200645E+00  6.09183123646903102E+00
  6.16845704047068111E+00  6.24604667843472683E+00  6.32461227389995972E+00
  6.40416610290050681E+00  6.48472059588401617E+00  6.56628833965389802E+00
  6.64888207933606790E+00  6.73251472037039012E+00  6.81719933052717142E+00
  6.90294914194905473E+00  6.98977755321852534E+00  7.07769813145150017E+00
  7.16672461441720277E+00  7.25687091268471551E+00  7.34815111179656100E+00
  7.44057947446955392E+00  7.53417044282340864E+00  7.62893864063734473E+00
  7.72489887563506894E+00  7.82206614179854665E+00  7.92045562171079887E+00
  8.02008268892823395E+00  8.12096291038279894E+00  8.22311204881433433E+00
  8.32654606523355234E+00  8.43128112141595309E+00  8.53733358242715035E+00
  8.64472001917994426E+00  8.75345721102354446E+00  8.86356214836542122E+00
  8.97505203532603879E+00  9.08794429242706059E+00  9.20225655931334074E+00
  9.31800669750914246E+00  9.43521279320906991E+00  9.55389316010402467E+00
  9.67406634224279394E+00  9.79575111692957812E+00  9.91896649765798522E+00
  1.00437317370819539E+01  1.01700663300239729E+01  1.02979900165212186E+01
  1.04275227849099696E+01  1.05586848749488116E+01  1.06914967809811863E+01
  1.08259792551376073E+01  1.09621533105782714E+01  1.11000402247763876E+01
  1.12396615428428213E+01  1.13810390808926041E+01  1.15241949294536798E+01
  1.16691514569186374E+01  1.18159313130398154E+01  1.19645574324683430E+01
  1.21150530383377859E+01  1.22674416458927329E+01  1.24217470661631584E+01
  1.25779934096849111E+01  1.27362050902670418E+01  1.28964068288065477E+01
  1.30586236571510010E+01  1.32228809220098587E+01  1.33892042889149412E+01
  1.35576197462307011E+01  1.37281536092150134E+01  1.39008325241309141E+01
  1.40756834724101711E+01  1.42527337748691920E+01  1.44320110959779377E+01
  1.46135434481825968E+01  1.47973591962825175E+01  1.49834870618623217E+01
                               </PP_R> 
 <PP_RAB type="real" size="  1101" columns="3">
  1.99974115253183423E-07  2.02489479971276823E-07  2.05036484082583799E-07